# vtk DataFile Version 3.0
# Solution du M1 TR
ASCII
DATASET UNSTRUCTURED_GRID
POINTS     23  float
0.0000000E+00  0.0000000E+00  0.5000000E+00
0.0000000E+00  0.1000000E+01  0.5000000E+00
0.1000000E+01  0.1000000E+01  0.5000000E+00
0.1000000E+01  0.0000000E+00  0.5000000E+00
0.5000000E+00  0.5000000E+00  0.0000000E+00
0.0000000E+00  0.5000000E+00  0.2500000E+00
0.5000000E+00  0.0000000E+00  0.2500000E+00
0.2500000E+00  0.5000000E+00  0.6250000E-01
0.2500000E+00  0.9687500E+00  0.2822266E+00
0.5000000E+00  0.1000000E+01  0.2500000E+00
0.0000000E+00  0.2500000E+00  0.3125000E+00
0.3750000E+00  0.2500000E+00  0.7812500E-01
0.2500000E+00  0.3125000E-01  0.2822266E+00
0.1250000E+00  0.7500000E+00  0.2031250E+00
0.3911638E+00  0.7429957E+00  0.7089223E-01
0.1000000E+01  0.5000000E+00  0.2500000E+00
0.7500000E+00  0.0000000E+00  0.3125000E+00
0.6562500E+00  0.2656250E+00  0.7934570E-01
0.7500000E+00  0.4973958E+00  0.6250678E-01
0.8723823E+00  0.7500000E+00  0.2011686E+00
0.7500000E+00  0.9700452E+00  0.2834425E+00
0.6322989E+00  0.7103680E+00  0.6175772E-01
0.9186790E+00  0.2500000E+00  0.2377921E+00
CELLS      34    136
3       9       1       8
3      10       7       5
3       5       7      13
3       1       5      13
3       6      17      11
3      17       6      16
3       7      10      11
3      14       7       4
3      12      10       0
3       1      13       8
3      14      13       7
3       4      21      14
3      14       8      13
3      11      10      12
3       4       7      11
3       0       6      12
3       6      11      12
3      17       4      11
3      21       4      18
3       9       8      14
3      18      15      19
3      22      16       3
3      16      22      17
3      18      17      22
3      19      15       2
3       4      17      18
3       2      20      19
3       9      21      20
3       2       9      20
3      21       9      14
3      18      19      21
3      20      21      19
3       3      15      22
3      18      22      15
CELL_TYPES      34
5
5
5
5
5
5
5
5
5
5
5
5
5
5
5
5
5
5
5
5
5
5
5
5
5
5
5
5
5
5
5
5
5
5
POINT_DATA      23
SCALARS hauteur float
LOOKUP_TABLE DEFAULT
       5.0000000E-01
       5.0000000E-01
       5.0000000E-01
       5.0000000E-01
       9.9999999E-09
       2.5000000E-01
       2.5000000E-01
       6.2500000E-02
       2.8222656E-01
       2.5000000E-01
       3.1250000E-01
       7.8125000E-02
       2.8222656E-01
       2.0312500E-01
       7.0892225E-02
       2.5000000E-01
       3.1250000E-01
       7.9345703E-02
       6.2506782E-02
       2.0116855E-01
       2.8344245E-01
       6.1757718E-02
       2.3779209E-01
SCALARS topographie float
LOOKUP_TABLE DEFAULT
       5.0000000E-01
       5.0000000E-01
       5.0000000E-01
       5.0000000E-01
       9.9999999E-09
       2.5000000E-01
       2.5000000E-01
       6.2500000E-02
       2.8222656E-01
       2.5000000E-01
       3.1250000E-01
       7.8125000E-02
       2.8222656E-01
       2.0312500E-01
       7.0892225E-02
       2.5000000E-01
       3.1250000E-01
       7.9345703E-02
       6.2506782E-02
       2.0116855E-01
       2.8344245E-01
       6.1757718E-02
       2.3779209E-01
